# vtk DataFile Version 4.1
vtk output
ASCII
DATASET POLYDATA
POINTS 1002 float
47.108 94.2985 96.9322 48.7411 98.3322 106.961 44.2928 102.355 90.852 
44.5679 105.568 101.052 52.13 100.301 100.374 49.748 104.043 96.7032 
40.6938 96.2494 103.513 38.7748 101.488 99.109 52.122 105.559 106.541 
49.3465 98.1682 90.493 42.667 102.367 107.642 42.6955 95.8937 92.9683 
47.0205 95.0824 97.6288 46.8749 95.9264 98.4274 46.7431 96.7471 99.3538 
46.7364 97.406 100.437 46.9067 97.8152 101.69 47.1604 98.0584 103.057 
47.4311 98.2674 104.356 47.8404 98.3521 105.409 48.3552 98.2941 106.251 
47.3907 94.8404 97.0402 47.676 95.5467 97.1884 47.963 96.378 97.3801 
48.2995 97.2313 97.675 48.7933 97.9964 98.1073 49.4352 98.6379 98.6413 
50.1163 99.1628 99.2173 50.8401 99.5695 99.7432 51.5355 99.9436 100.129 
46.7718 94.3237 97.3099 46.3358 94.4493 97.8183 45.7563 94.7392 98.4094 
45.075 95.133 99.0702 44.3656 95.4723 99.8194 43.6204 95.7005 100.675 
42.8501 95.9136 101.59 42.1208 96.102 102.428 41.4071 96.2042 103.06 
47.3504 93.8431 96.3226 47.6219 93.4667 95.6626 47.9564 93.3349 95.0461 
48.3628 93.5587 94.4072 48.7914 94.0686 93.7149 49.1195 94.7491 92.9877 
49.288 95.5718 92.2527 49.349 96.4837 91.5719 49.3479 97.368 90.9974 
46.9479 93.5022 96.5306 46.6889 92.6793 96.1592 46.247 92.1068 95.7353 
45.6619 92.0953 95.1865 45.0775 92.5418 94.6152 44.5219 93.2216 94.1121 
43.9918 94.0013 93.6753 43.5265 94.7498 93.3587 43.0979 95.3761 93.1406 
49.3236 98.4982 106.574 49.8776 98.7207 106.104 50.3369 99.0315 105.576 
50.7132 99.3691 104.982 51.0237 99.7176 104.282 51.2246 100.055 103.559 
51.4377 100.247 102.784 51.7105 100.297 101.946 51.9576 100.304 101.125 
47.9291 98.0984 106.869 47.0822 97.8136 106.69 46.2086 97.5024 106.4 
45.3039 97.1794 106.016 44.4181 96.8156 105.643 43.5419 96.4388 105.339 
42.6499 96.1205 104.994 41.8044 95.9729 104.55 41.1393 96.0441 104.053 
49.3534 98.6801 107.348 49.9495 99.1985 107.668 50.5311 99.8615 107.897 
51.0685 100.633 107.991 51.471 101.556 107.952 51.7679 102.591 107.8 
51.9913 103.569 107.577 52.1145 104.387 107.298 52.1633 105.042 106.945 
48.4387 98.4509 107.506 47.9605 98.7495 107.924 47.3297 99.153 108.208 
46.5667 99.6212 108.36 45.7663 100.094 108.448 44.9814 100.567 108.467 
44.2272 101.084 108.395 43.5712 101.614 108.27 43.0485 102.064 108.025 
44.2439 102.708 91.5435 44.207 103.083 92.387 44.1693 103.445 93.4525 
44.1346 103.762 94.6553 44.1408 104.071 95.8905 44.1798 104.403 97.1247 
44.2348 104.746 98.2683 44.3119 105.076 99.2658 44.4191 105.366 100.164 
44.7586 102.684 90.6594 45.2935 103.018 90.5818 45.9138 103.281 90.706 
46.6173 103.501 91.055 47.3305 103.712 91.6721 47.9053 103.82 92.6394 
48.3673 103.872 93.7778 48.8339 103.942 94.8598 49.3054 104.004 95.8317 
43.8099 102.267 91.5194 43.277 102.219 92.2763 42.6755 102.165 93.1275 
42.0268 102.073 94.0473 41.373 101.979 94.9781 40.7095 101.881 95.8796 
40.1291 101.774 96.7754 39.6482 101.656 97.6487 39.2027 101.554 98.4261 
44.5959 102.235 89.9963 44.8636 102.11 89.0649 45.2189 101.913 88.3457 
45.86 101.608 88.1837 46.7024 101.207 88.4922 47.4546 100.712 88.9033 
48.0756 100.149 89.282 48.5987 99.5039 89.6594 49.0157 98.8052 90.0579 
44.0186 101.944 90.5972 43.6627 101.462 90.4039 43.2626 100.894 90.3431 
42.8895 100.212 90.4205 42.5765 99.344 90.6372 42.3375 98.4026 90.9468 
42.2177 97.5395 91.3068 42.2545 96.806 91.7395 42.4534 96.2671 92.3496 
45.0638 105.729 100.61 45.6601 105.799 100.149 46.307 105.815 99.6634 
47.0088 105.77 99.1575 47.7178 105.647 98.6565 48.3418 105.432 98.1957 
48.8497 105.136 97.7829 49.2417 104.786 97.3879 49.5224 104.406 97.0188 
43.9946 105.256 100.932 43.3436 104.908 100.823 42.6184 104.565 100.705 
41.9141 104.177 100.542 41.225 103.75 100.314 40.5001 103.377 100.024 
39.8759 102.962 99.7435 39.4049 102.482 99.4976 39.0407 101.991 99.2899 
45.0747 105.821 101.701 45.7149 106.021 102.39 46.4655 106.176 103.086 
47.2571 106.32 103.809 48.1142 106.423 104.562 49.108 106.432 105.236 
50.1144 106.411 105.755 50.9782 106.287 106.13 51.6468 105.98 106.383 
44.4029 105.501 101.889 44.2183 105.377 102.776 44.0019 105.207 103.638 
43.7912 104.953 104.451 43.6158 104.572 105.149 43.4463 104.137 105.777 
43.2525 103.697 106.398 43.0389 103.249 106.918 42.8361 102.811 107.316 
52.5109 100.515 99.9996 52.7831 100.821 99.5051 52.8889 101.361 98.9508 
52.7462 102.056 98.5553 52.3432 102.657 98.3327 51.8017 103.068 98.0743 
51.2556 103.391 97.7292 50.7051 103.641 97.3793 50.1873 103.847 97.0346 
52.5173 100.694 101.056 52.7488 101.217 101.821 53.0682 101.729 102.588 
53.5395 102.174 103.321 53.8931 102.728 104.12 53.9501 103.546 105.042 
53.7968 104.333 105.708 53.3613 104.857 106.078 52.7516 105.246 106.32 
51.8869 100.072 99.4858 51.5792 99.803 98.4807 51.1903 99.4991 97.3589 
50.7313 99.2009 96.1468 50.383 98.8821 94.8884 50.1765 98.5771 93.715 
50.0069 98.3287 92.6644 49.9216 98.0957 91.6716 49.7706 98.0229 90.8874 
50.0658 104.306 97.7294 50.4687 104.589 98.7538 50.9302 104.861 99.7895 
51.3749 105.15 100.851 51.761 105.425 101.904 52.1092 105.617 102.963 
52.3564 105.744 104.107 52.4544 105.838 105.141 52.3702 105.788 105.934 
49.6769 103.668 95.8589 49.6232 103.263 94.9211 49.6212 102.825 93.8807 
49.6216 102.355 92.7785 49.6175 101.878 91.7557 49.7665 101.34 90.8876 
49.9193 100.614 90.2691 49.8624 99.7283 90.081 49.6615 98.8712 90.1858 
40.0485 96.4379 103.337 39.4322 96.7023 103.062 38.8589 97.0863 102.686 
38.3604 97.5788 102.254 38.1085 98.1333 101.759 38.2579 98.771 101.189 
38.4074 99.5779 100.522 38.3989 100.408 99.9128 38.4843 101.047 99.4539 
40.3036 96.2691 104.247 40.0725 96.5833 104.956 40.0074 97.1662 105.573 
40.059 97.8567 106.074 40.2798 98.6769 106.53 40.6149 99.5734 106.955 
41.0083 100.388 107.335 41.5109 101.143 107.612 42.1032 101.807 107.667 
40.8107 96.4582 102.632 40.9042 96.49 101.576 41.0244 96.374 100.407 
41.3334 96.2874 99.1736 41.7458 96.1975 97.9407 42.0718 96.0169 96.7605 
42.3599 95.9464 95.7038 42.6048 95.9539 94.7892 42.7052 95.9211 93.8836 
38.5951 101.738 99.9984 38.5817 101.921 101.122 38.7817 101.975 102.316 
39.1484 101.978 103.36 39.5998 102.024 104.312 40.1176 102.078 105.226 
40.758 102.128 105.983 41.4094 102.212 106.633 42.0276 102.295 107.202 
38.8833 100.946 98.5401 39.0806 100.325 97.9046 39.2811 99.6776 97.1653 
39.6021 99.0643 96.4526 40.1517 98.5282 95.8598 40.7466 97.9704 95.2265 
41.278 97.4036 94.5654 41.8125 96.8918 93.9619 42.3088 96.3874 93.4385 
51.516 105.519 107.024 50.7616 105.412 107.503 49.8056 105.21 107.895 
48.72 104.865 108.141 47.5734 104.414 108.259 46.4095 104.016 108.326 
45.3317 103.636 108.294 44.3694 103.171 108.093 43.4778 102.736 107.851 
48.7232 97.9337 90.6466 48.057 97.6472 90.8532 47.449 97.2442 91.0213 
46.692 96.8775 91.2059 45.8294 96.6047 91.4382 45.0774 96.3027 91.6405 
44.2996 95.949 91.7228 43.5096 95.6921 91.8427 42.9816 95.685 92.276 
47.2962 95.6995 97.7917 47.6098 96.4315 98.0146 47.1805 96.5809 98.6519 
47.9803 97.2112 98.3188 47.5989 97.2501 98.9966 47.1552 97.3328 99.6951 
48.4913 97.9228 98.7709 48.1477 97.8982 99.4697 47.7376 97.8729 100.207 
47.3097 97.8596 100.955 49.1373 98.5666 99.346 48.7907 98.5206 100.08 
48.4043 98.4447 100.812 47.9903 98.3337 101.588 47.5764 98.2189 102.343 
49.8178 99.143 99.9316 49.4616 99.1044 100.711 49.1035 99.0047 101.452 
48.7364 98.8241 102.224 48.3129 98.6656 103.003 47.865 98.4896 103.719 
50.5844 99.5611 100.452 50.2464 99.5454 101.246 49.8921 99.4598 102.023 
49.5742 99.2466 102.807 49.1985 99.0193 103.599 48.7355 98.8442 104.283 
48.2866 98.6039 104.869 51.3393 99.9168 100.86 51.0677 99.8918 101.662 
50.7398 99.8355 102.465 50.4516 99.6411 103.242 50.1488 99.3433 104.029 
49.7606 99.0781 104.721 49.3243 98.811 105.27 48.8467 98.5371 105.788 
47.6434 94.5158 96.3846 47.8968 94.3357 95.7167 47.9457 95.3447 96.5128 
48.2324 94.3434 95.0919 48.2238 95.2775 95.8362 48.2513 96.2857 96.7014 
48.6674 94.5797 94.4398 48.5671 95.3639 95.2128 48.5792 96.2761 96.0402 
48.5984 97.2434 97.0256 49.1261 95.0027 93.7065 48.9781 95.6237 94.566 
48.9551 96.3966 95.4202 48.9761 97.2689 96.4006 49.1201 98.0627 97.5061 
49.4921 95.5783 92.9137 49.3869 96.0058 93.8387 49.33 96.6611 94.7887 
49.3864 97.3784 95.7827 49.5129 98.1029 96.9275 49.7821 98.7124 98.0862 
49.717 96.3359 92.126 49.7321 96.5375 93.0358 49.6627 97.0259 94.0859 
49.7366 97.6251 95.1253 49.9263 98.2131 96.2915 50.2059 98.7527 97.5264 
50.5111 99.2222 98.6824 49.785 97.1937 91.4551 49.9176 97.2854 92.2774 
49.9198 97.5853 93.3253 49.9973 98.0142 94.4149 50.2168 98.4732 95.5883 
50.5769 98.9013 96.8483 50.9375 99.3059 98.0689 51.2404 99.6672 99.164 
49.8541 98.8908 90.9126 49.9199 99.8112 91.1474 49.9636 99.0373 91.9588 
49.9302 100.661 91.6443 50.0762 99.9229 92.3811 50.2088 99.2361 93.0278 
49.8924 101.345 92.3758 50.1667 100.694 93.0116 50.4111 100.052 93.5966 
50.4831 99.43 94.2164 49.9454 101.945 93.274 50.2647 101.419 93.8228 
50.5856 100.842 94.3349 50.7642 100.239 94.9139 50.7828 99.6615 95.5457 
50.0308 102.499 94.3034 50.4211 102.107 94.7493 50.8138 101.628 95.1746 
51.0977 101.037 95.6794 51.212 100.399 96.2679 51.2696 99.8688 96.8238 
50.062 102.999 95.2917 50.5264 102.692 95.6942 51.0137 102.311 96.0737 
51.4482 101.81 96.4843 51.7136 101.164 96.9448 51.8203 100.53 97.4461 
51.7996 100.086 97.9695 50.1198 103.442 96.2003 50.614 103.191 96.5717 
51.138 102.883 96.9423 51.6723 102.489 97.3045 52.1298 101.957 97.6205 
52.3774 101.274 97.9846 52.3958 100.675 98.4856 52.2234 100.309 99.0243 
52.8663 100.969 100.679 53.1306 101.396 100.148 53.1094 101.569 101.447 
53.1983 102.053 99.595 53.389 102.137 100.91 53.438 102.24 102.226 
52.9461 102.754 99.2729 53.4138 102.835 100.389 53.6861 102.936 101.691 
53.8088 102.897 102.93 52.4318 103.261 99.0808 53.0366 103.423 100.098 
53.524 103.578 101.238 53.8187 103.662 102.471 53.925 103.631 103.768 
51.8458 103.629 98.7804 52.4148 103.839 99.8506 52.9736 104.064 100.938 
53.4221 104.281 102.072 53.6809 104.411 103.316 53.7955 104.444 104.627 
[...]
POINT_DATA 1002
SCALARS _paraPhi double
LOOKUP_TABLE default
6.2831853072 3.1415926536 6.2831853072 3.1415926536 4.7123889804 4.7123889804 1.5707963268 1.5707963268 3.6951670125 
5.7296109483 2.5880182947 0.5535743589 6.2831853072 6.2831853072 6.2831853072 6.2831853072 3.1415926536 3.1415926536 
3.1415926536 3.1415926536 3.1415926536 6.1053039672 5.898798347 5.6768734901 5.4599499503 5.2659633393 5.1032165617 
4.9713148346 4.8656852733 4.7809517865 0.17788134 0.38438696014 0.60631181711 0.82323535693 1.0172219679 1.1799687454 
1.3118704726 1.4175000338 1.5022335207 6.1892828907 6.1070320098 6.035312792 5.9728339911 5.9183214791 5.8706119594 
5.8286879411 5.7916808611 5.7588591896 0.093902416448 0.17615329733 0.2478725152 0.31035131605 0.36486382811 0.41257334776 
0.45449736604 0.4915044461 0.52432611754 3.3194739936 3.5259796137 3.7479044707 3.9648280105 4.1588146215 4.321561399 
4.4534631262 4.5590926874 4.6438261743 2.9637113136 2.7572056934 2.5352808365 2.3183572967 2.1243706857 1.9616239082 
1.829722181 1.7240926197 1.6393591329 3.23549507 3.3177459509 3.3894651688 3.4519439696 3.5064564817 3.5541660013 
3.5960900196 3.6330970997 3.6659187711 3.0476902371 2.9654393563 2.8937201384 2.8312413375 2.7767288255 2.7290193058 
2.6870952876 2.6500882075 2.617266536 6.2831853072 6.2831853072 6.2831853072 6.2831853072 3.1415926536 3.1415926536 
3.1415926536 3.1415926536 3.1415926536 6.1053039672 5.898798347 5.6768734901 5.4599499503 5.2659633393 5.1032165617 
4.9713148346 4.8656852733 4.7809517865 0.17788134 0.38438696014 0.60631181711 0.82323535693 1.0172219679 1.1799687454 
1.3118704726 1.4175000338 1.5022335207 6.1892828907 6.1070320098 6.035312792 5.9728339911 5.9183214791 5.8706119594 
5.8286879411 5.7916808611 5.7588591896 0.093902416448 0.17615329733 0.2478725152 0.31035131605 0.36486382811 0.41257334776 
0.45449736604 0.4915044461 0.52432611754 3.3194739936 3.5259796137 3.7479044707 3.9648280105 4.1588146215 4.321561399 
4.4534631262 4.5590926874 4.6438261743 2.9637113136 2.7572056934 2.5352808365 2.3183572967 2.1243706857 1.9616239082 
1.829722181 1.7240926197 1.6393591329 3.23549507 3.3177459509 3.3894651688 3.4519439696 3.5064564817 3.5541660013 
3.5960900196 3.6330970997 3.6659187711 3.0476902371 2.9654393563 2.8937201384 2.8312413375 2.7767288255 2.7290193058 
2.6870952876 2.6500882075 2.617266536 4.7123889804 4.7123889804 4.7123889804 4.7123889804 4.7123889804 4.7123889804 
4.7123889804 4.7123889804 4.7123889804 4.6087898617 4.4991390697 4.3857031936 4.2712800401 4.1588146215 4.0509635631 
3.94975894 3.8564636551 3.7716124825 4.8159880991 4.9256388911 5.0390747672 5.1534979207 5.2659633393 5.3738143976 
5.4750190208 5.5683143056 5.6531654782 4.6087898617 4.4991390697 4.3857031936 4.2712800401 4.1588146215 4.0509635631 
3.94975894 3.8564636551 3.7716124825 4.8159880991 4.9256388911 5.0390747672 5.1534979207 5.2659633393 5.3738143976 
5.4750190208 5.5683143056 5.6531654782 1.5707963268 1.5707963268 1.5707963268 1.5707963268 1.5707963268 1.5707963268 
1.5707963268 1.5707963268 1.5707963268 1.6743954455 1.7840462375 1.8974821136 2.0119052671 2.1243706857 2.232221744 
2.3334263672 2.426721652 2.5115728246 1.4671972081 1.3575464161 1.24411054 1.1296873865 1.0172219679 0.90937090954 
0.80816628637 0.71487100155 0.63001982895 1.6743954455 1.7840462375 1.8974821136 2.0119052671 2.1243706857 2.232221744 
2.3334263672 2.426721652 2.5115728246 1.4671972081 1.3575464161 1.24411054 1.1296873865 1.0172219679 0.90937090954 
0.80816628637 0.71487100155 0.63001982895 3.6007720849 3.4966939854 3.3839471039 3.2645756454 3.1415926536 3.0186096618 
2.8992382033 2.7864913217 2.6824132222 5.8240058758 5.9280839753 6.0408308569 6.1602023154 6.2831853072 0.12298299178 
0.2423544503 0.35510133185 0.45917943135 6.0560271438 5.7885595667 5.9702140275 5.5125918794 5.6029703303 5.7885595667 
5.2659633393 5.2659633393 5.2659633393 5.2659633393 5.0674903122 5.0120975802 4.9155579264 4.7123889804 4.1588146215 
4.9155579264 4.8353719722 4.7123889804 4.5092200343 4.1588146215 3.6362183941 4.8004512023 4.7123889804 4.5894059886 
4.4126803806 4.1588146215 3.8218076305 3.4545639333 4.7123889804 4.6243267584 4.5092200343 4.3572876485 4.1588146215 
3.9121860814 3.6362183941 3.368750817 6.0174235957 5.9434319871 5.8263323547 5.8809213739 5.7674481418 5.6279784266 
5.8278025282 5.718968232 5.5891129425 5.4372443565 5.7823484065 5.678536687 5.5575666702 5.4192596322 5.2659633393 
5.743164462 5.6444075337 5.5314983644 5.4046708639 5.2659633393 5.1195510325 5.7091357773 5.6152775188 5.5096229709 
5.3926039573 5.2659633393 5.1329233157 4.9978930058 5.6793730533 5.5901633916 5.4910209005 5.3824597928 5.2659633393 
5.1440684722 5.0201624502 4.8979782167 5.5683143056 5.4750190208 5.4750190208 5.3738143976 5.3738143976 5.3738143976 
5.2659633393 5.2659633393 5.2659633393 5.2659633393 5.1534979207 5.1534979207 5.1534979207 5.1534979207 5.1534979207 
5.0390747672 5.0390747672 5.0390747672 5.0390747672 5.0390747672 5.0390747672 4.9256388911 4.9256388911 4.9256388911 
4.9256388911 4.9256388911 4.9256388911 4.9256388911 4.8159880991 4.8159880991 4.8159880991 4.8159880991 4.8159880991 
4.8159880991 4.8159880991 4.8159880991 4.6087898617 4.6087898617 4.4991390697 4.6087898617 4.4991390697 4.3857031936 
4.6087898617 4.4991390697 4.3857031936 4.2712800401 4.6087898617 4.4991390697 4.3857031936 4.2712800401 4.1588146215 
4.6087898617 4.4991390697 4.3857031936 4.2712800401 4.1588146215 4.0509635631 4.6087898617 4.4991390697 4.3857031936 
4.2712800401 4.1588146215 4.0509635631 3.94975894 4.6087898617 4.4991390697 4.3857031936 4.2712800401 4.1588146215 
4.0509635631 3.94975894 3.8564636551 4.526799744 4.4046155105 4.426884955 4.2807094886 4.2918546451 4.3052269283 
4.1588146215 4.1588146215 4.1588146215 4.1588146215 4.042318168 4.0321740035 4.0201070968 4.0055183285 3.9875336042 
3.9337570603 3.9151549899 3.8932795963 3.8672112905 3.8356650183 3.7967995342 3.8346145692 3.809500442 3.7803704271 
3.7462412737 3.7058097288 3.657329819 3.5984456061 3.7454049075 3.7156421835 3.6816134988 3.6424295543 3.5969754326 
3.5438565869 3.4813459737 3.4073543651 3.5642842451 3.4524645613 3.5233842518 3.3320300872 3.403123212 3.4773852225 
3.20576226 3.2746326772 3.348015857 3.4255060145 3.0774230472 3.1415926536 3.2112816139 3.2864685043 3.3668817272 
2.95115522 3.00855263 3.0719036933 3.1415926536 3.2178377658 3.3005964304 2.8307207459 2.8800620952 2.9351694502 
2.9967168029 3.0653475414 3.1415926536 3.225752376 2.718901062 2.7598010554 2.8058000847 2.8576792927 2.91630358 
2.9825888767 3.0574329311 3.1415926536 3.5642842451 3.5233842518 3.4524645613 3.4773852225 3.403123212 3.3320300872 
3.4255060145 3.348015857 3.2746326772 3.20576226 3.3668817272 3.2864685043 3.2112816139 3.1415926536 3.0774230472 
3.3005964304 3.2178377658 3.1415926536 3.0719036933 3.00855263 2.95115522 3.225752376 3.1415926536 3.0653475414 
2.9967168029 2.9351694502 2.8800620952 2.8307207459 3.1415926536 3.0574329311 2.9825888767 2.91630358 2.8576792927 
2.8058000847 2.7598010554 2.718901062 4.526799744 4.426884955 4.4046155105 4.3052269283 4.2918546451 4.2807094886 
4.1588146215 4.1588146215 4.1588146215 4.1588146215 3.9875336042 4.0055183285 4.0201070968 4.0321740035 4.042318168 
3.7967995342 3.8356650183 3.8672112905 3.8932795963 3.9151549899 3.9337570603 3.5984456061 3.657329819 3.7058097288 
3.7462412737 3.7803704271 3.809500442 3.8346145692 3.4073543651 3.4813459737 3.5438565869 3.5969754326 3.6424295543 
3.6816134988 3.7156421835 3.7454049075 4.7123889804 4.8004512023 4.6243267584 4.9155579264 4.7123889804 4.5092200343 
5.0674903122 4.8353719722 4.5894059886 4.3572876485 5.2659633393 5.0120975802 4.7123889804 4.4126803806 4.1588146215 
5.5125918794 5.2659633393 4.9155579264 4.5092200343 4.1588146215 3.9121860814 5.7885595667 5.6029703303 5.2659633393 
4.7123889804 4.1588146215 3.8218076305 3.6362183941 6.0560271438 5.9702140275 5.7885595667 5.2659633393 4.1588146215 
3.6362183941 3.4545639333 3.368750817 0.22715816343 0.49462574053 0.3129712797 0.77059342779 0.68021497688 0.49462574053 
1.0172219679 1.0172219679 1.0172219679 1.0172219679 1.2156949949 1.271087727 1.3676273807 1.5707963268 2.1243706857 
1.3676273807 1.447813335 1.5707963268 1.7739652728 2.1243706857 2.6469669131 1.4827341049 1.5707963268 1.6937793186 
1.8705049266 2.1243706857 2.4613776767 2.8286213739 1.5707963268 1.6588585487 1.7739652728 1.9258976586 2.1243706857 
2.3709992258 2.6469669131 2.9144344902 1.7563855631 1.8785697967 1.8563003522 2.0024758186 1.9913306621 1.9779583789 
2.1243706857 2.1243706857 2.1243706857 2.1243706857 2.2408671392 2.2510113037 2.2630782103 2.2776669786 2.295651703 
2.3494282469 2.3680303173 2.3899057108 2.4159740166 2.4475202889 2.486385773 2.448570738 2.4736848652 2.5028148801 
2.5369440334 2.5773755784 2.6258554882 2.6847397011 2.5377803997 2.5675431237 2.6015718084 2.6407557529 2.6862098746 
2.7393287203 2.8018393335 2.8758309421 1.6743954455 1.6743954455 1.7840462375 1.6743954455 1.7840462375 1.8974821136 
1.6743954455 1.7840462375 1.8974821136 2.0119052671 1.6743954455 1.7840462375 1.8974821136 2.0119052671 2.1243706857 
1.6743954455 1.7840462375 1.8974821136 2.0119052671 2.1243706857 2.232221744 1.6743954455 1.7840462375 1.8974821136 
2.0119052671 2.1243706857 2.232221744 2.3334263672 1.6743954455 1.7840462375 1.8974821136 2.0119052671 2.1243706857 
2.232221744 2.3334263672 2.426721652 1.4671972081 1.3575464161 1.4671972081 1.24411054 1.3575464161 1.4671972081 
1.1296873865 1.24411054 1.3575464161 1.4671972081 1.0172219679 1.1296873865 1.24411054 1.3575464161 1.4671972081 
0.90937090954 1.0172219679 1.1296873865 1.24411054 1.3575464161 1.4671972081 0.80816628637 0.90937090954 1.0172219679 
1.1296873865 1.24411054 1.3575464161 1.4671972081 0.71487100155 0.80816628637 0.90937090954 1.0172219679 1.1296873865 
1.24411054 1.3575464161 1.4671972081 0.60381225391 0.57404952988 0.69302191562 0.54002084522 0.66790778838 0.79216440667 
0.50083690068 0.63877777351 0.77356233629 0.90072551443 0.45538277901 0.60464862014 0.75168694275 0.89058134991 1.0172219679 
0.40226393329 0.56421707518 0.72561863695 0.87851444325 1.0172219679 1.139116835 0.33975332011 0.51573716537 0.69407236469 
0.86392567495 1.0172219679 1.1502619915 1.2630228569 0.26576171152 0.45685295248 0.6552068806 0.84594095064 1.0172219679 
1.1636342747 1.2852923014 1.3852070904 0.22715816343 0.3129712797 0.49462574053 0.49462574053 0.68021497688 0.77059342779 
1.0172219679 1.0172219679 1.0172219679 1.0172219679 2.1243706857 1.5707963268 1.3676273807 1.271087727 1.2156949949 
2.6469669131 2.1243706857 1.7739652728 1.5707963268 1.447813335 1.3676273807 2.8286213739 2.4613776767 2.1243706857 
1.8705049266 1.6937793186 1.5707963268 1.4827341049 2.9144344902 2.6469669131 2.3709992258 2.1243706857 1.9258976586 
1.7739652728 1.6588585487 1.5707963268 1.7563855631 1.8563003522 1.8785697967 1.9779583789 1.9913306621 2.0024758186 
2.1243706857 2.1243706857 2.1243706857 2.1243706857 2.295651703 2.2776669786 2.2630782103 2.2510113037 2.2408671392 
2.486385773 2.4475202889 2.4159740166 2.3899057108 2.3680303173 2.3494282469 2.6847397011 2.6258554882 2.5773755784 
2.5369440334 2.5028148801 2.4736848652 2.448570738 2.8758309421 2.8018393335 2.7393287203 2.6862098746 2.6407557529 
2.6015718084 2.5675431237 2.5377803997 5.8604937156 5.901393709 5.9723133995 5.9473927383 6.0216547488 6.0927478736 
5.9992719463 6.0767621038 6.1501452836 6.2190157008 6.0578962336 6.1383094565 6.2134963469 0 0.064169606361 
6.1241815303 6.206940195 6.2831853072 0.069688960264 0.13304002361 0.19043743361 6.1990255847 0 0.07624511221 
0.14487585072 0.20642320337 0.26153055843 0.3108719077 0 0.084159722458 0.15900377685 0.22528907359 0.28391336087 
0.3357925689 0.38179159818 0.42269159155 5.8604937156 5.9723133995 5.901393709 6.0927478736 6.0216547488 5.9473927383 
6.2190157008 6.1501452836 6.0767621038 5.9992719463 0.064169606361 0 6.2134963469 6.1383094565 6.0578962336 
0.19043743361 0.13304002361 0.069688960264 6.2831853072 6.206940195 6.1241815303 0.3108719077 0.26153055843 0.20642320337 
0.14487585072 0.07624511221 6.2831853072 6.1990255847 0.42269159155 0.38179159818 0.3357925689 0.28391336087 0.22528907359 
0.15900377685 0.084159722458 0 5.6793730533 5.7091357773 5.5901633916 5.743164462 5.6152775188 5.4910209005 
5.7823484065 5.6444075337 5.5096229709 5.3824597928 5.8278025282 5.678536687 5.5314983644 5.3926039573 5.2659633393 
5.8809213739 5.718968232 5.5575666702 5.4046708639 5.2659633393 5.1440684722 5.9434319871 5.7674481418 5.5891129425 
5.4192596322 5.2659633393 5.1329233157 5.0201624502 6.0174235957 5.8263323547 5.6279784266 5.4372443565 5.2659633393 
5.1195510325 4.9978930058 4.8979782167 1.3852070904 1.2852923014 1.2630228569 1.1636342747 1.1502619915 1.139116835 
1.0172219679 1.0172219679 1.0172219679 1.0172219679 0.84594095064 0.86392567495 0.87851444325 0.89058134991 0.90072551443 
0.6552068806 0.69407236469 0.72561863695 0.75168694275 0.77356233629 0.79216440667 0.45685295248 0.51573716537 0.56421707518 
0.60464862014 0.63877777351 0.66790778838 0.69302191562 0.26576171152 0.33975332011 0.40226393329 0.45538277901 0.50083690068 
0.54002084522 0.57404952988 0.60381225391 
